LAMMPS data file
                                                 
 1560      atoms                              
           0  bonds                              
           0  angles                             
           0  dihedrals                          
           0  impropers                          
                                                 
           1  atom types                         
           0  bond types                         
           0  angle types                        
           0  dihedral types                     
           0  improper types                   

		-0.71 63.2 xlo xhi
		-0.615 63.345 ylo yhi
		-1 1 zlo zhi
                                                 
 Masses                                          
                                                 
		1 12.011
                           
 Atoms   

1   1   0   0   0
2   1   0.710140519 1.22999946  0
3   1   2.840562078 0   0
4   1   0   2.45999892  0
5   1   0.710140519 3.689998381 0
6   1   2.130421558 1.22999946  0
7   1   2.840562078 2.45999892  0
8   1   4.260843117 0   0
9   1   4.970983636 1.22999946  0
10  1   7.101405194 0   0
11  1   0   4.919997841 0
12  1   0.710140519 6.149997301 0
13  1   2.130421558 3.689998381 0
14  1   2.840562078 4.919997841 0
15  1   4.260843117 2.45999892  0
16  1   4.970983636 3.689998381 0
17  1   6.391264675 1.22999946  0
18  1   7.101405194 2.45999892  0
19  1   8.521686233 0   0
20  1   9.231826753 1.22999946  0
21  1   11.36224831 0   0
22  1   0   7.379996761 0
23  1   0.710140519 8.609996221 0
24  1   2.130421558 6.149997301 0
25  1   2.840562078 7.379996761 0
26  1   4.260843117 4.919997841 0
27  1   4.970983636 6.149997301 0
28  1   6.391264675 3.689998381 0
29  1   7.101405194 4.919997841 0
30  1   8.521686233 2.45999892  0
31  1   9.231826753 3.689998381 0
32  1   10.65210779 1.22999946  0
33  1   11.36224831 2.45999892  0
34  1   12.78252935 0   0
35  1   13.49266987 1.22999946  0
36  1   15.62309143 0   0
37  1   0   9.839995681 0
38  1   0.710140519 11.06999514 0
39  1   2.130421558 8.609996221 0
40  1   2.840562078 9.839995681 0
41  1   4.260843117 7.379996761 0
42  1   4.970983636 8.609996221 0
43  1   6.391264675 6.149997301 0
44  1   7.101405194 7.379996761 0
45  1   8.521686233 4.919997841 0
46  1   9.231826753 6.149997301 0
47  1   10.65210779 3.689998381 0
48  1   11.36224831 4.919997841 0
49  1   12.78252935 2.45999892  0
50  1   13.49266987 3.689998381 0
51  1   14.91295091 1.22999946  0
52  1   15.62309143 2.45999892  0
53  1   17.04337247 0   0
54  1   17.75351299 1.22999946  0
55  1   19.88393454 0   0
56  1   0   12.2999946  0
57  1   0.710140519 13.52999406 0
58  1   2.130421558 11.06999514 0
59  1   2.840562078 12.2999946  0
60  1   4.260843117 9.839995681 0
61  1   4.970983636 11.06999514 0
62  1   6.391264675 8.609996221 0
63  1   7.101405194 9.839995681 0
64  1   8.521686233 7.379996761 0
65  1   9.231826753 8.609996221 0
66  1   10.65210779 6.149997301 0
67  1   11.36224831 7.379996761 0
68  1   12.78252935 4.919997841 0
69  1   13.49266987 6.149997301 0
70  1   14.91295091 3.689998381 0
71  1   15.62309143 4.919997841 0
72  1   17.04337247 2.45999892  0
73  1   17.75351299 3.689998381 0
74  1   19.17379403 1.22999946  0
75  1   19.88393454 2.45999892  0
76  1   21.30421558 0   0
77  1   22.0143561  1.22999946  0
78  1   24.14477766 0   0
79  1   0   14.75999352 0
80  1   0.710140519 15.98999298 0
81  1   2.130421558 13.52999406 0
82  1   2.840562078 14.75999352 0
83  1   4.260843117 12.2999946  0
84  1   4.970983636 13.52999406 0
85  1   6.391264675 11.06999514 0
86  1   7.101405194 12.2999946  0
87  1   8.521686233 9.839995681 0
88  1   9.231826753 11.06999514 0
89  1   10.65210779 8.609996221 0
90  1   11.36224831 9.839995681 0
91  1   12.78252935 7.379996761 0
92  1   13.49266987 8.609996221 0
93  1   14.91295091 6.149997301 0
94  1   15.62309143 7.379996761 0
95  1   17.04337247 4.919997841 0
96  1   17.75351299 6.149997301 0
97  1   19.17379403 3.689998381 0
98  1   19.88393454 4.919997841 0
99  1   21.30421558 2.45999892  0
100 1   22.0143561  3.689998381 0
101 1   23.43463714 1.22999946  0
102 1   24.14477766 2.45999892  0
103 1   25.5650587  0   0
104 1   26.27519922 1.22999946  0
105 1   28.40562078 0   0
106 1   0   17.21999244 0
107 1   0.710140519 18.4499919  0
108 1   2.130421558 15.98999298 0
109 1   2.840562078 17.21999244 0
110 1   4.260843117 14.75999352 0
111 1   4.970983636 15.98999298 0
112 1   6.391264675 13.52999406 0
113 1   7.101405194 14.75999352 0
114 1   8.521686233 12.2999946  0
115 1   9.231826753 13.52999406 0
116 1   10.65210779 11.06999514 0
117 1   11.36224831 12.2999946  0
118 1   12.78252935 9.839995681 0
119 1   13.49266987 11.06999514 0
120 1   14.91295091 8.609996221 0
121 1   15.62309143 9.839995681 0
122 1   17.04337247 7.379996761 0
123 1   17.75351299 8.609996221 0
124 1   19.17379403 6.149997301 0
125 1   19.88393454 7.379996761 0
126 1   21.30421558 4.919997841 0
127 1   22.0143561  6.149997301 0
128 1   23.43463714 3.689998381 0
129 1   24.14477766 4.919997841 0
130 1   25.5650587  2.45999892  0
131 1   26.27519922 3.689998381 0
132 1   27.69548026 1.22999946  0
133 1   28.40562078 2.45999892  0
134 1   29.82590182 0   0
135 1   30.53604234 1.22999946  0
136 1   32.66646389 0   0
137 1   0   19.67999136 0
138 1   0.710140519 20.90999082 0
139 1   2.130421558 18.4499919  0
140 1   2.840562078 19.67999136 0
141 1   4.260843117 17.21999244 0
142 1   4.970983636 18.4499919  0
143 1   6.391264675 15.98999298 0
144 1   7.101405194 17.21999244 0
145 1   8.521686233 14.75999352 0
146 1   9.231826753 15.98999298 0
147 1   10.65210779 13.52999406 0
148 1   11.36224831 14.75999352 0
149 1   12.78252935 12.2999946  0
150 1   13.49266987 13.52999406 0
151 1   14.91295091 11.06999514 0
152 1   15.62309143 12.2999946  0
153 1   17.04337247 9.839995681 0
154 1   17.75351299 11.06999514 0
155 1   19.17379403 8.609996221 0
156 1   19.88393454 9.839995681 0
157 1   21.30421558 7.379996761 0
158 1   22.0143561  8.609996221 0
159 1   23.43463714 6.149997301 0
160 1   24.14477766 7.379996761 0
161 1   25.5650587  4.919997841 0
162 1   26.27519922 6.149997301 0
163 1   27.69548026 3.689998381 0
164 1   28.40562078 4.919997841 0
165 1   29.82590182 2.45999892  0
166 1   30.53604234 3.689998381 0
167 1   31.95632338 1.22999946  0
168 1   32.66646389 2.45999892  0
169 1   34.08674493 0   0
170 1   34.79688545 1.22999946  0
171 1   36.92730701 0   0
172 1   0   22.13999028 0
173 1   0.710140519 23.36998974 0
174 1   2.130421558 20.90999082 0
175 1   2.840562078 22.13999028 0
176 1   4.260843117 19.67999136 0
177 1   4.970983636 20.90999082 0
178 1   6.391264675 18.4499919  0
179 1   7.101405194 19.67999136 0
180 1   8.521686233 17.21999244 0
181 1   9.231826753 18.4499919  0
182 1   10.65210779 15.98999298 0
183 1   11.36224831 17.21999244 0
184 1   12.78252935 14.75999352 0
185 1   13.49266987 15.98999298 0
186 1   14.91295091 13.52999406 0
187 1   15.62309143 14.75999352 0
188 1   17.04337247 12.2999946  0
189 1   17.75351299 13.52999406 0
190 1   19.17379403 11.06999514 0
191 1   19.88393454 12.2999946  0
192 1   21.30421558 9.839995681 0
193 1   22.0143561  11.06999514 0
194 1   23.43463714 8.609996221 0
195 1   24.14477766 9.839995681 0
196 1   25.5650587  7.379996761 0
197 1   26.27519922 8.609996221 0
198 1   27.69548026 6.149997301 0
199 1   28.40562078 7.379996761 0
200 1   29.82590182 4.919997841 0
201 1   30.53604234 6.149997301 0
202 1   31.95632338 3.689998381 0
203 1   32.66646389 4.919997841 0
204 1   34.08674493 2.45999892  0
205 1   34.79688545 3.689998381 0
206 1   36.21716649 1.22999946  0
207 1   36.92730701 2.45999892  0
208 1   38.34758805 0   0
209 1   39.05772857 1.22999946  0
210 1   41.18815013 0   0
211 1   0   24.5999892  0
212 1   0.710140519 25.82998866 0
213 1   2.130421558 23.36998974 0
214 1   2.840562078 24.5999892  0
215 1   4.260843117 22.13999028 0
216 1   4.970983636 23.36998974 0
217 1   6.391264675 20.90999082 0
218 1   7.101405194 22.13999028 0
219 1   8.521686233 19.67999136 0
220 1   9.231826753 20.90999082 0
221 1   10.65210779 18.4499919  0
222 1   11.36224831 19.67999136 0
223 1   12.78252935 17.21999244 0
224 1   13.49266987 18.4499919  0
225 1   14.91295091 15.98999298 0
226 1   15.62309143 17.21999244 0
227 1   17.04337247 14.75999352 0
228 1   17.75351299 15.98999298 0
229 1   19.17379403 13.52999406 0
230 1   19.88393454 14.75999352 0
231 1   21.30421558 12.2999946  0
232 1   22.0143561  13.52999406 0
233 1   23.43463714 11.06999514 0
234 1   24.14477766 12.2999946  0
235 1   25.5650587  9.839995681 0
236 1   26.27519922 11.06999514 0
237 1   27.69548026 8.609996221 0
238 1   28.40562078 9.839995681 0
239 1   29.82590182 7.379996761 0
240 1   30.53604234 8.609996221 0
241 1   31.95632338 6.149997301 0
242 1   32.66646389 7.379996761 0
243 1   34.08674493 4.919997841 0
244 1   34.79688545 6.149997301 0
245 1   36.21716649 3.689998381 0
246 1   36.92730701 4.919997841 0
247 1   38.34758805 2.45999892  0
248 1   39.05772857 3.689998381 0
249 1   40.47800961 1.22999946  0
250 1   41.18815013 2.45999892  0
251 1   42.60843117 0   0
252 1   43.31857169 1.22999946  0
253 1   45.44899324 0   0
254 1   0   27.05998812 0
255 1   0.710140519 28.28998758 0
256 1   2.130421558 25.82998866 0
257 1   2.840562078 27.05998812 0
258 1   4.260843117 24.5999892  0
259 1   4.970983636 25.82998866 0
260 1   6.391264675 23.36998974 0
261 1   7.101405194 24.5999892  0
262 1   8.521686233 22.13999028 0
263 1   9.231826753 23.36998974 0
264 1   10.65210779 20.90999082 0
265 1   11.36224831 22.13999028 0
266 1   12.78252935 19.67999136 0
267 1   13.49266987 20.90999082 0
268 1   14.91295091 18.4499919  0
269 1   15.62309143 19.67999136 0
270 1   17.04337247 17.21999244 0
271 1   17.75351299 18.4499919  0
272 1   19.17379403 15.98999298 0
273 1   19.88393454 17.21999244 0
274 1   21.30421558 14.75999352 0
275 1   22.0143561  15.98999298 0
276 1   23.43463714 13.52999406 0
277 1   24.14477766 14.75999352 0
278 1   25.5650587  12.2999946  0
279 1   26.27519922 13.52999406 0
280 1   27.69548026 11.06999514 0
281 1   28.40562078 12.2999946  0
282 1   29.82590182 9.839995681 0
283 1   30.53604234 11.06999514 0
284 1   31.95632338 8.609996221 0
285 1   32.66646389 9.839995681 0
286 1   34.08674493 7.379996761 0
287 1   34.79688545 8.609996221 0
288 1   36.21716649 6.149997301 0
289 1   36.92730701 7.379996761 0
290 1   38.34758805 4.919997841 0
291 1   39.05772857 6.149997301 0
292 1   40.47800961 3.689998381 0
293 1   41.18815013 4.919997841 0
294 1   42.60843117 2.45999892  0
295 1   43.31857169 3.689998381 0
296 1   44.73885273 1.22999946  0
297 1   45.44899324 2.45999892  0
298 1   46.86927428 0   0
299 1   47.5794148  1.22999946  0
300 1   49.70983636 0   0
301 1   0   29.51998704 0
302 1   0.710140519 30.74998651 0
303 1   2.130421558 28.28998758 0
304 1   2.840562078 29.51998704 0
305 1   4.260843117 27.05998812 0
306 1   4.970983636 28.28998758 0
307 1   6.391264675 25.82998866 0
308 1   7.101405194 27.05998812 0
309 1   8.521686233 24.5999892  0
310 1   9.231826753 25.82998866 0
311 1   10.65210779 23.36998974 0
312 1   11.36224831 24.5999892  0
313 1   12.78252935 22.13999028 0
314 1   13.49266987 23.36998974 0
315 1   14.91295091 20.90999082 0
316 1   15.62309143 22.13999028 0
317 1   17.04337247 19.67999136 0
318 1   17.75351299 20.90999082 0
319 1   19.17379403 18.4499919  0
320 1   19.88393454 19.67999136 0
321 1   21.30421558 17.21999244 0
322 1   22.0143561  18.4499919  0
323 1   23.43463714 15.98999298 0
324 1   24.14477766 17.21999244 0
325 1   25.5650587  14.75999352 0
326 1   26.27519922 15.98999298 0
327 1   27.69548026 13.52999406 0
328 1   28.40562078 14.75999352 0
329 1   29.82590182 12.2999946  0
330 1   30.53604234 13.52999406 0
331 1   31.95632338 11.06999514 0
332 1   32.66646389 12.2999946  0
333 1   34.08674493 9.839995681 0
334 1   34.79688545 11.06999514 0
335 1   36.21716649 8.609996221 0
336 1   36.92730701 9.839995681 0
337 1   38.34758805 7.379996761 0
338 1   39.05772857 8.609996221 0
339 1   40.47800961 6.149997301 0
340 1   41.18815013 7.379996761 0
341 1   42.60843117 4.919997841 0
342 1   43.31857169 6.149997301 0
343 1   44.73885273 3.689998381 0
344 1   45.44899324 4.919997841 0
345 1   46.86927428 2.45999892  0
346 1   47.5794148  3.689998381 0
347 1   48.99969584 1.22999946  0
348 1   49.70983636 2.45999892  0
349 1   51.1301174  0   0
350 1   51.84025792 1.22999946  0
351 1   53.97067948 0   0
352 1   0   31.97998597 0
353 1   0.710140519 33.20998543 0
354 1   2.130421558 30.74998651 0
355 1   2.840562078 31.97998597 0
356 1   4.260843117 29.51998704 0
357 1   4.970983636 30.74998651 0
358 1   6.391264675 28.28998758 0
359 1   7.101405194 29.51998704 0
360 1   8.521686233 27.05998812 0
361 1   9.231826753 28.28998758 0
362 1   10.65210779 25.82998866 0
363 1   11.36224831 27.05998812 0
364 1   12.78252935 24.5999892  0
365 1   13.49266987 25.82998866 0
366 1   14.91295091 23.36998974 0
367 1   15.62309143 24.5999892  0
368 1   17.04337247 22.13999028 0
369 1   17.75351299 23.36998974 0
370 1   19.17379403 20.90999082 0
371 1   19.88393454 22.13999028 0
372 1   21.30421558 19.67999136 0
373 1   22.0143561  20.90999082 0
374 1   23.43463714 18.4499919  0
375 1   24.14477766 19.67999136 0
376 1   25.5650587  17.21999244 0
377 1   26.27519922 18.4499919  0
378 1   27.69548026 15.98999298 0
379 1   28.40562078 17.21999244 0
380 1   29.82590182 14.75999352 0
381 1   30.53604234 15.98999298 0
382 1   31.95632338 13.52999406 0
383 1   32.66646389 14.75999352 0
384 1   34.08674493 12.2999946  0
385 1   34.79688545 13.52999406 0
386 1   36.21716649 11.06999514 0
387 1   36.92730701 12.2999946  0
388 1   38.34758805 9.839995681 0
389 1   39.05772857 11.06999514 0
390 1   40.47800961 8.609996221 0
391 1   41.18815013 9.839995681 0
392 1   42.60843117 7.379996761 0
393 1   43.31857169 8.609996221 0
394 1   44.73885273 6.149997301 0
395 1   45.44899324 7.379996761 0
396 1   46.86927428 4.919997841 0
397 1   47.5794148  6.149997301 0
398 1   48.99969584 3.689998381 0
399 1   49.70983636 4.919997841 0
400 1   51.1301174  2.45999892  0
401 1   51.84025792 3.689998381 0
402 1   53.26053896 1.22999946  0
403 1   53.97067948 2.45999892  0
404 1   55.39096052 0   0
405 1   56.10110104 1.22999946  0
406 1   58.23152259 0   0
407 1   0   34.43998489 0
408 1   0.710140519 35.66998435 0
409 1   2.130421558 33.20998543 0
410 1   2.840562078 34.43998489 0
411 1   4.260843117 31.97998597 0
412 1   4.970983636 33.20998543 0
413 1   6.391264675 30.74998651 0
414 1   7.101405194 31.97998597 0
415 1   8.521686233 29.51998704 0
416 1   9.231826753 30.74998651 0
417 1   10.65210779 28.28998758 0
418 1   11.36224831 29.51998704 0
419 1   12.78252935 27.05998812 0
420 1   13.49266987 28.28998758 0
421 1   14.91295091 25.82998866 0
422 1   15.62309143 27.05998812 0
423 1   17.04337247 24.5999892  0
424 1   17.75351299 25.82998866 0
425 1   19.17379403 23.36998974 0
426 1   19.88393454 24.5999892  0
427 1   21.30421558 22.13999028 0
428 1   22.0143561  23.36998974 0
429 1   23.43463714 20.90999082 0
430 1   24.14477766 22.13999028 0
431 1   25.5650587  19.67999136 0
432 1   26.27519922 20.90999082 0
433 1   27.69548026 18.4499919  0
434 1   28.40562078 19.67999136 0
435 1   29.82590182 17.21999244 0
436 1   30.53604234 18.4499919  0
437 1   31.95632338 15.98999298 0
438 1   32.66646389 17.21999244 0
439 1   34.08674493 14.75999352 0
440 1   34.79688545 15.98999298 0
441 1   36.21716649 13.52999406 0
442 1   36.92730701 14.75999352 0
443 1   38.34758805 12.2999946  0
444 1   39.05772857 13.52999406 0
445 1   40.47800961 11.06999514 0
446 1   41.18815013 12.2999946  0
447 1   42.60843117 9.839995681 0
448 1   43.31857169 11.06999514 0
449 1   44.73885273 8.609996221 0
450 1   45.44899324 9.839995681 0
451 1   46.86927428 7.379996761 0
452 1   47.5794148  8.609996221 0
453 1   48.99969584 6.149997301 0
454 1   49.70983636 7.379996761 0
455 1   51.1301174  4.919997841 0
456 1   51.84025792 6.149997301 0
457 1   53.26053896 3.689998381 0
458 1   53.97067948 4.919997841 0
459 1   55.39096052 2.45999892  0
460 1   56.10110104 3.689998381 0
461 1   57.52138208 1.22999946  0
462 1   58.23152259 2.45999892  0
463 1   59.65180363 0   0
464 1   60.36194415 1.22999946  0
465 1   62.49236571 0   0
466 1   0   36.89998381 0
467 1   0.710140519 38.12998327 0
468 1   2.130421558 35.66998435 0
469 1   2.840562078 36.89998381 0
470 1   4.260843117 34.43998489 0
471 1   4.970983636 35.66998435 0
472 1   6.391264675 33.20998543 0
473 1   7.101405194 34.43998489 0
474 1   8.521686233 31.97998597 0
475 1   9.231826753 33.20998543 0
476 1   10.65210779 30.74998651 0
477 1   11.36224831 31.97998597 0
478 1   12.78252935 29.51998704 0
479 1   13.49266987 30.74998651 0
480 1   14.91295091 28.28998758 0
481 1   15.62309143 29.51998704 0
482 1   17.04337247 27.05998812 0
483 1   17.75351299 28.28998758 0
484 1   19.17379403 25.82998866 0
485 1   19.88393454 27.05998812 0
486 1   21.30421558 24.5999892  0
487 1   22.0143561  25.82998866 0
488 1   23.43463714 23.36998974 0
489 1   24.14477766 24.5999892  0
490 1   25.5650587  22.13999028 0
491 1   26.27519922 23.36998974 0
492 1   27.69548026 20.90999082 0
493 1   28.40562078 22.13999028 0
494 1   29.82590182 19.67999136 0
495 1   30.53604234 20.90999082 0
496 1   31.95632338 18.4499919  0
497 1   32.66646389 19.67999136 0
498 1   34.08674493 17.21999244 0
499 1   34.79688545 18.4499919  0
500 1   36.21716649 15.98999298 0
501 1   36.92730701 17.21999244 0
502 1   38.34758805 14.75999352 0
503 1   39.05772857 15.98999298 0
504 1   40.47800961 13.52999406 0
505 1   41.18815013 14.75999352 0
506 1   42.60843117 12.2999946  0
507 1   43.31857169 13.52999406 0
508 1   44.73885273 11.06999514 0
509 1   45.44899324 12.2999946  0
510 1   46.86927428 9.839995681 0
511 1   47.5794148  11.06999514 0
512 1   48.99969584 8.609996221 0
513 1   49.70983636 9.839995681 0
514 1   51.1301174  7.379996761 0
515 1   51.84025792 8.609996221 0
516 1   53.26053896 6.149997301 0
517 1   53.97067948 7.379996761 0
518 1   55.39096052 4.919997841 0
519 1   56.10110104 6.149997301 0
520 1   57.52138208 3.689998381 0
521 1   58.23152259 4.919997841 0
522 1   59.65180363 2.45999892  0
523 1   60.36194415 3.689998381 0
524 1   61.78222519 1.22999946  0
525 1   62.49236571 2.45999892  0
526 1   0   39.35998273 0
527 1   0.710140519 40.58998219 0
528 1   2.130421558 38.12998327 0
529 1   2.840562078 39.35998273 0
530 1   4.260843117 36.89998381 0
531 1   4.970983636 38.12998327 0
532 1   6.391264675 35.66998435 0
533 1   7.101405194 36.89998381 0
534 1   8.521686233 34.43998489 0
535 1   9.231826753 35.66998435 0
536 1   10.65210779 33.20998543 0
537 1   11.36224831 34.43998489 0
538 1   12.78252935 31.97998597 0
539 1   13.49266987 33.20998543 0
540 1   14.91295091 30.74998651 0
541 1   15.62309143 31.97998597 0
542 1   17.04337247 29.51998704 0
543 1   17.75351299 30.74998651 0
544 1   19.17379403 28.28998758 0
545 1   19.88393454 29.51998704 0
546 1   21.30421558 27.05998812 0
547 1   22.0143561  28.28998758 0
548 1   23.43463714 25.82998866 0
549 1   24.14477766 27.05998812 0
550 1   25.5650587  24.5999892  0
551 1   26.27519922 25.82998866 0
552 1   27.69548026 23.36998974 0
553 1   28.40562078 24.5999892  0
554 1   29.82590182 22.13999028 0
555 1   30.53604234 23.36998974 0
556 1   31.95632338 20.90999082 0
557 1   32.66646389 22.13999028 0
558 1   34.08674493 19.67999136 0
559 1   34.79688545 20.90999082 0
560 1   36.21716649 18.4499919  0
561 1   36.92730701 19.67999136 0
562 1   38.34758805 17.21999244 0
563 1   39.05772857 18.4499919  0
564 1   40.47800961 15.98999298 0
565 1   41.18815013 17.21999244 0
566 1   42.60843117 14.75999352 0
567 1   43.31857169 15.98999298 0
568 1   44.73885273 13.52999406 0
569 1   45.44899324 14.75999352 0
570 1   46.86927428 12.2999946  0
571 1   47.5794148  13.52999406 0
572 1   48.99969584 11.06999514 0
573 1   49.70983636 12.2999946  0
574 1   51.1301174  9.839995681 0
575 1   51.84025792 11.06999514 0
576 1   53.26053896 8.609996221 0
577 1   53.97067948 9.839995681 0
578 1   55.39096052 7.379996761 0
579 1   56.10110104 8.609996221 0
580 1   57.52138208 6.149997301 0
581 1   58.23152259 7.379996761 0
582 1   59.65180363 4.919997841 0
583 1   60.36194415 6.149997301 0
584 1   61.78222519 3.689998381 0
585 1   62.49236571 4.919997841 0
586 1   0   41.81998165 0
587 1   0.710140519 43.04998111 0
588 1   2.130421558 40.58998219 0
589 1   2.840562078 41.81998165 0
590 1   4.260843117 39.35998273 0
591 1   4.970983636 40.58998219 0
592 1   6.391264675 38.12998327 0
593 1   7.101405194 39.35998273 0
594 1   8.521686233 36.89998381 0
595 1   9.231826753 38.12998327 0
596 1   10.65210779 35.66998435 0
597 1   11.36224831 36.89998381 0
598 1   12.78252935 34.43998489 0
599 1   13.49266987 35.66998435 0
600 1   14.91295091 33.20998543 0
601 1   15.62309143 34.43998489 0
602 1   17.04337247 31.97998597 0
603 1   17.75351299 33.20998543 0
604 1   19.17379403 30.74998651 0
605 1   19.88393454 31.97998597 0
606 1   21.30421558 29.51998704 0
607 1   22.0143561  30.74998651 0
608 1   23.43463714 28.28998758 0
609 1   24.14477766 29.51998704 0
610 1   25.5650587  27.05998812 0
611 1   26.27519922 28.28998758 0
612 1   27.69548026 25.82998866 0
613 1   28.40562078 27.05998812 0
614 1   29.82590182 24.5999892  0
615 1   30.53604234 25.82998866 0
616 1   31.95632338 23.36998974 0
617 1   32.66646389 24.5999892  0
618 1   34.08674493 22.13999028 0
619 1   34.79688545 23.36998974 0
620 1   36.21716649 20.90999082 0
621 1   36.92730701 22.13999028 0
622 1   38.34758805 19.67999136 0
623 1   39.05772857 20.90999082 0
624 1   40.47800961 18.4499919  0
625 1   41.18815013 19.67999136 0
626 1   42.60843117 17.21999244 0
627 1   43.31857169 18.4499919  0
628 1   44.73885273 15.98999298 0
629 1   45.44899324 17.21999244 0
630 1   46.86927428 14.75999352 0
631 1   47.5794148  15.98999298 0
632 1   48.99969584 13.52999406 0
633 1   49.70983636 14.75999352 0
634 1   51.1301174  12.2999946  0
635 1   51.84025792 13.52999406 0
636 1   53.26053896 11.06999514 0
637 1   53.97067948 12.2999946  0
638 1   55.39096052 9.839995681 0
639 1   56.10110104 11.06999514 0
640 1   57.52138208 8.609996221 0
641 1   58.23152259 9.839995681 0
642 1   59.65180363 7.379996761 0
643 1   60.36194415 8.609996221 0
644 1   61.78222519 6.149997301 0
645 1   62.49236571 7.379996761 0
646 1   0   44.27998057 0
647 1   0.710140519 45.50998003 0
648 1   2.130421558 43.04998111 0
649 1   2.840562078 44.27998057 0
650 1   4.260843117 41.81998165 0
651 1   4.970983636 43.04998111 0
652 1   6.391264675 40.58998219 0
653 1   7.101405194 41.81998165 0
654 1   8.521686233 39.35998273 0
655 1   9.231826753 40.58998219 0
656 1   10.65210779 38.12998327 0
657 1   11.36224831 39.35998273 0
658 1   12.78252935 36.89998381 0
659 1   13.49266987 38.12998327 0
660 1   14.91295091 35.66998435 0
661 1   15.62309143 36.89998381 0
662 1   17.04337247 34.43998489 0
663 1   17.75351299 35.66998435 0
664 1   19.17379403 33.20998543 0
665 1   19.88393454 34.43998489 0
666 1   21.30421558 31.97998597 0
667 1   22.0143561  33.20998543 0
668 1   23.43463714 30.74998651 0
669 1   24.14477766 31.97998597 0
670 1   25.5650587  29.51998704 0
671 1   26.27519922 30.74998651 0
672 1   27.69548026 28.28998758 0
673 1   28.40562078 29.51998704 0
674 1   29.82590182 27.05998812 0
675 1   30.53604234 28.28998758 0
676 1   31.95632338 25.82998866 0
677 1   32.66646389 27.05998812 0
678 1   34.08674493 24.5999892  0
679 1   34.79688545 25.82998866 0
680 1   36.21716649 23.36998974 0
681 1   36.92730701 24.5999892  0
682 1   38.34758805 22.13999028 0
683 1   39.05772857 23.36998974 0
684 1   40.47800961 20.90999082 0
685 1   41.18815013 22.13999028 0
686 1   42.60843117 19.67999136 0
687 1   43.31857169 20.90999082 0
688 1   44.73885273 18.4499919  0
689 1   45.44899324 19.67999136 0
690 1   46.86927428 17.21999244 0
691 1   47.5794148  18.4499919  0
692 1   48.99969584 15.98999298 0
693 1   49.70983636 17.21999244 0
694 1   51.1301174  14.75999352 0
695 1   51.84025792 15.98999298 0
696 1   53.26053896 13.52999406 0
697 1   53.97067948 14.75999352 0
698 1   55.39096052 12.2999946  0
699 1   56.10110104 13.52999406 0
700 1   57.52138208 11.06999514 0
701 1   58.23152259 12.2999946  0
702 1   59.65180363 9.839995681 0
703 1   60.36194415 11.06999514 0
704 1   61.78222519 8.609996221 0
705 1   62.49236571 9.839995681 0
706 1   0   46.73997949 0
707 1   0.710140519 47.96997895 0
708 1   2.130421558 45.50998003 0
709 1   2.840562078 46.73997949 0
710 1   4.260843117 44.27998057 0
711 1   4.970983636 45.50998003 0
712 1   6.391264675 43.04998111 0
713 1   7.101405194 44.27998057 0
714 1   8.521686233 41.81998165 0
715 1   9.231826753 43.04998111 0
716 1   10.65210779 40.58998219 0
717 1   11.36224831 41.81998165 0
718 1   12.78252935 39.35998273 0
719 1   13.49266987 40.58998219 0
720 1   14.91295091 38.12998327 0
721 1   15.62309143 39.35998273 0
722 1   17.04337247 36.89998381 0
723 1   17.75351299 38.12998327 0
724 1   19.17379403 35.66998435 0
725 1   19.88393454 36.89998381 0
726 1   21.30421558 34.43998489 0
727 1   22.0143561  35.66998435 0
728 1   23.43463714 33.20998543 0
729 1   24.14477766 34.43998489 0
730 1   25.5650587  31.97998597 0
731 1   26.27519922 33.20998543 0
732 1   27.69548026 30.74998651 0
733 1   28.40562078 31.97998597 0
734 1   29.82590182 29.51998704 0
735 1   30.53604234 30.74998651 0
736 1   31.95632338 28.28998758 0
737 1   32.66646389 29.51998704 0
738 1   34.08674493 27.05998812 0
739 1   34.79688545 28.28998758 0
740 1   36.21716649 25.82998866 0
741 1   36.92730701 27.05998812 0
742 1   38.34758805 24.5999892  0
743 1   39.05772857 25.82998866 0
744 1   40.47800961 23.36998974 0
745 1   41.18815013 24.5999892  0
746 1   42.60843117 22.13999028 0
747 1   43.31857169 23.36998974 0
748 1   44.73885273 20.90999082 0
749 1   45.44899324 22.13999028 0
750 1   46.86927428 19.67999136 0
751 1   47.5794148  20.90999082 0
752 1   48.99969584 18.4499919  0
753 1   49.70983636 19.67999136 0
754 1   51.1301174  17.21999244 0
755 1   51.84025792 18.4499919  0
756 1   53.26053896 15.98999298 0
757 1   53.97067948 17.21999244 0
758 1   55.39096052 14.75999352 0
759 1   56.10110104 15.98999298 0
760 1   57.52138208 13.52999406 0
761 1   58.23152259 14.75999352 0
762 1   59.65180363 12.2999946  0
763 1   60.36194415 13.52999406 0
764 1   61.78222519 11.06999514 0
765 1   62.49236571 12.2999946  0
766 1   0   49.19997841 0
767 1   0.710140519 50.42997787 0
768 1   2.130421558 47.96997895 0
769 1   2.840562078 49.19997841 0
770 1   4.260843117 46.73997949 0
771 1   4.970983636 47.96997895 0
772 1   6.391264675 45.50998003 0
773 1   7.101405194 46.73997949 0
774 1   8.521686233 44.27998057 0
775 1   9.231826753 45.50998003 0
776 1   10.65210779 43.04998111 0
777 1   11.36224831 44.27998057 0
778 1   12.78252935 41.81998165 0
779 1   13.49266987 43.04998111 0
780 1   14.91295091 40.58998219 0
781 1   15.62309143 41.81998165 0
782 1   17.04337247 39.35998273 0
783 1   17.75351299 40.58998219 0
784 1   19.17379403 38.12998327 0
785 1   19.88393454 39.35998273 0
786 1   21.30421558 36.89998381 0
787 1   22.0143561  38.12998327 0
788 1   23.43463714 35.66998435 0
789 1   24.14477766 36.89998381 0
790 1   25.5650587  34.43998489 0
791 1   26.27519922 35.66998435 0
792 1   27.69548026 33.20998543 0
793 1   28.40562078 34.43998489 0
794 1   29.82590182 31.97998597 0
795 1   30.53604234 33.20998543 0
796 1   31.95632338 30.74998651 0
797 1   32.66646389 31.97998597 0
798 1   34.08674493 29.51998704 0
799 1   34.79688545 30.74998651 0
800 1   36.21716649 28.28998758 0
801 1   36.92730701 29.51998704 0
802 1   38.34758805 27.05998812 0
803 1   39.05772857 28.28998758 0
804 1   40.47800961 25.82998866 0
805 1   41.18815013 27.05998812 0
806 1   42.60843117 24.5999892  0
807 1   43.31857169 25.82998866 0
808 1   44.73885273 23.36998974 0
809 1   45.44899324 24.5999892  0
810 1   46.86927428 22.13999028 0
811 1   47.5794148  23.36998974 0
812 1   48.99969584 20.90999082 0
813 1   49.70983636 22.13999028 0
814 1   51.1301174  19.67999136 0
815 1   51.84025792 20.90999082 0
816 1   53.26053896 18.4499919  0
817 1   53.97067948 19.67999136 0
818 1   55.39096052 17.21999244 0
819 1   56.10110104 18.4499919  0
820 1   57.52138208 15.98999298 0
821 1   58.23152259 17.21999244 0
822 1   59.65180363 14.75999352 0
823 1   60.36194415 15.98999298 0
824 1   61.78222519 13.52999406 0
825 1   62.49236571 14.75999352 0
826 1   0   51.65997733 0
827 1   0.710140519 52.88997679 0
828 1   2.130421558 50.42997787 0
829 1   2.840562078 51.65997733 0
830 1   4.260843117 49.19997841 0
831 1   4.970983636 50.42997787 0
832 1   6.391264675 47.96997895 0
833 1   7.101405194 49.19997841 0
834 1   8.521686233 46.73997949 0
835 1   9.231826753 47.96997895 0
836 1   10.65210779 45.50998003 0
837 1   11.36224831 46.73997949 0
838 1   12.78252935 44.27998057 0
839 1   13.49266987 45.50998003 0
840 1   14.91295091 43.04998111 0
841 1   15.62309143 44.27998057 0
842 1   17.04337247 41.81998165 0
843 1   17.75351299 43.04998111 0
844 1   19.17379403 40.58998219 0
845 1   19.88393454 41.81998165 0
846 1   21.30421558 39.35998273 0
847 1   22.0143561  40.58998219 0
848 1   23.43463714 38.12998327 0
849 1   24.14477766 39.35998273 0
850 1   25.5650587  36.89998381 0
851 1   26.27519922 38.12998327 0
852 1   27.69548026 35.66998435 0
853 1   28.40562078 36.89998381 0
854 1   29.82590182 34.43998489 0
855 1   30.53604234 35.66998435 0
856 1   31.95632338 33.20998543 0
857 1   32.66646389 34.43998489 0
858 1   34.08674493 31.97998597 0
859 1   34.79688545 33.20998543 0
860 1   36.21716649 30.74998651 0
861 1   36.92730701 31.97998597 0
862 1   38.34758805 29.51998704 0
863 1   39.05772857 30.74998651 0
864 1   40.47800961 28.28998758 0
865 1   41.18815013 29.51998704 0
866 1   42.60843117 27.05998812 0
867 1   43.31857169 28.28998758 0
868 1   44.73885273 25.82998866 0